
; VARIOUS PREPROCESSING OPTIONS
title                = 
include              = 
define               = -DFLEXIBLE

; RUN CONTROL PARAMETERS
integrator           = md
; Start time and timestep in ps
tinit                = 0        ;0.005 ;0.035 ;0.03
dt                   = 0.000001 ;
nsteps               = 30000    ;

; For exact run continuation or redoing part of a run
init-step            = 0
; mode for center of mass motion removal
comm-mode            = Linear
; number of steps for center of mass motion removal
nstcomm              = 1
; group(s) for center of mass motion removal
comm-grps            = 

; LANGEVIN DYNAMICS OPTIONS
; Friction coefficient (amu/ps) and random seed
bd-fric              = 0
ld-seed              = 1993

; ENERGY MINIMIZATION OPTIONS
; Force tolerance and initial step-size
emtol                = 0.1
emstep               = 0.01
; Max number of iterations in relax_shells
niter                = 20
; Step size (ps^2) for minimization of flexible constraints
fcstep               = 0
; Frequency of steepest descents steps when doing CG
nstcgsteep           = 1000
nbfgscorr            = 10

; OUTPUT CONTROL OPTIONS
; Output frequency for coords (x), velocities (v) and forces (f)
nstxout              = 100      ;
nstvout              = 100      ;
nstfout              = 100      ;
; Output frequency for energies to log file and energy file
nstlog               = 100      ;
nstenergy            = 100      ;
; Output frequency and precision for xtc file
xtc-precision        = 100      ;
; This selects the subset of atoms for the xtc file. You can
; select multiple groups. By default all atoms will be written.
xtc-grps             = 
; Selection of energy groups
energygrps           = 

; NEIGHBORSEARCHING PARAMETERS
; nblist update frequency
nstlist              = 5
; ns algorithm (simple or grid)
ns-type              = grid     ; simple
; Periodic boundary conditions: xyz (default), no (vacuum)
; or full (infinite systems only)
pbc                  = no
; nblist cut-off
rlist                = 2        ; 1.3 = ok

; OPTIONS FOR ELECTROSTATICS AND VDW
; Method for doing electrostatics
coulombtype          = Cut-off
rcoulomb-switch      = 0
rcoulomb             = 2        ;1.0
; Relative dielectric constant for the medium and the reaction field
epsilon-r            = 1
epsilon-rf           = 1
; Method for doing Van der Waals
vdw-type             = Cut-off
; cut-off lengths
rvdw-switch          = 0
rvdw                 = 2        ;1.0
; Apply long range dispersion corrections for Energy and Pressure
DispCorr             = no
; Extension of the potential lookup tables beyond the cut-off
table-extension      = 5000
; Seperate tables between energy group pairs
energygrp-table      = 
; Spacing for the PME/PPPM FFT grid
fourierspacing       = 0.12
; FFT grid size, when a value is 0 fourierspacing will be used
fourier-nx           = 0
fourier-ny           = 0
fourier-nz           = 0
; EWALD/PME/PPPM parameters
pme-order            = 4
ewald-rtol           = 1e-05
ewald-geometry       = 3d
epsilon-surface      = 0
optimize_fft         = no

; GENERALIZED BORN ELECTROSTATICS
; Algorithm for calculating Born radii
gb_algorithm         = Still
; Frequency of calculating the Born radii inside rlist
nstgbradii           = 1
; Cutoff for Born radii calculation; the contribution from atoms
; between rlist and rgbradii is updated every nstlist steps
rgbradii             = 2
; Salt concentration in M for Generalized Born models
gb_saltconc          = 0

; IMPLICIT SOLVENT (for use with Generalized Born electrostatics)
implicit_solvent     = No

; OPTIONS FOR WEAK COUPLING ALGORITHMS
; Temperature coupling
; Groups to couple separately
; Time constant (ps) and reference temperature (K)
; Pressure coupling
; Time constant (ps), compressibility (1/bar) and reference P (bar)
compressibility      = 5        ;
ref-p                = 1        ;
; Random seed for Andersen thermostat
andersen_seed        = 815131

; OPTIONS FOR QMMM calculations
QMMM                 = no
; Groups treated Quantum Mechanically
QMMM-grps            = 
; QM method
QMmethod             = 
; QMMM scheme
QMMMscheme           = normal
; QM basisset
QMbasis              = 
; QM charge
QMcharge             = 
; QM multiplicity
QMmult               = 
; Surface Hopping
SH                   = 
; CAS space options
CASorbitals          = 
CASelectrons         = 
SAon                 = 
SAoff                = 
SAsteps              = 
; Scale factor for MM charges
MMChargeScaleFactor  = 1
; Optimization of QM subsystem
bOPT                 = 
bTS                  = 

; SIMULATED ANNEALING
; Type of annealing for each temperature group (no/single/periodic)
annealing            = 
; Number of time points to use for specifying annealing in each group
annealing-npoints    = 
; List of times at the annealing points for each group
annealing-time       = 
; Temp. at each annealing point, for each group.
annealing-temp       = 

; GENERATE VELOCITIES FOR STARTUP RUN
gen-temp             = 300
gen-vel              = no
gen-seed             = 1312313

; OPTIONS FOR BONDS
constraints          = none
; Type of constraint algorithm
constraint-algorithm = LINCS
; Do not constrain the start configuration
continuation         = no
; Use successive overrelaxation to reduce the number of shake iterations
Shake-SOR            = no
; Relative tolerance of shake
shake-tol            = 0.0001
; Highest order in the expansion of the constraint coupling matrix
lincs-order          = 4
; Number of iterations in the final step of LINCS. 1 is fine for
; normal simulations, but use 2 to conserve energy in NVE runs.
; For energy minimization with constraints it should be 4 to 8.
lincs-iter           = 1
; Lincs will write a warning to the stderr if in one step a bond
; rotates over more degrees than
lincs-warnangle      = 30
; Convert harmonic bonds to morse potentials
morse                = yes

; ENERGY GROUP EXCLUSIONS
; Pairs of energy groups for which all non-bonded interactions are excluded
energygrp-excl       = 

; NMR refinement stuff
; Distance restraints type: No, Simple or Ensemble
disre                = no
; Force weighting of pairs in one distance restraint: Conservative or Equal
disre-weighting      = conservative
; Use sqrt of the time averaged times the instantaneous violation
disre-mixed          = no
disre-fc             = 1000
disre-tau            = 0
; Output frequency for pair distances to energy file
nstdisreout          = 100
; Orientation restraints: No or Yes
orire                = no
; Orientation restraints force constant and tau for time averaging
orire-fc             = 0
orire-tau            = 0
orire-fitgrp         = 
; Output frequency for trace(SD) and S to energy file
nstorireout          = 100
; Dihedral angle restraints: No, Simple or Ensemble
dihre                = No
dihre-fc             = 1000

; Free energy control stuff
free-energy          = no
init-lambda          = 0
delta-lambda         = 0
sc-alpha             = 0
sc-power             = 0
sc-sigma             = 0.3

; Non-equilibrium MD stuff
acc-grps             = 
accelerate           = 
freezegrps           = 
freezedim            = 
cos-acceleration     = 0
deform               = 

; Electric fields
; Format is number of terms (int) and for all terms an amplitude (real)
; and a phase angle (real)
E-x                  = 
E-xt                 = 
E-y                  = 
E-yt                 = 
E-z                  = 
E-zt                 = 

; MolDStruct ionization.  These only take effect with mdrun -ionize, which
; also enables the altered force field.  Note times are in FEMTOSECONDS.
mcmd-charge-transfer         = 1        ; classical over-the-barrier charge transfer
mcmd-allow-h-ct              = 0        ; allow H-H transfer (resonant; see README)
mcmd-charge-transfer-downhill = 0       ; require charge transfer to be downhill
mcmd-pulse-peak-time         = 0        ; centre of the Gaussian pulse [fs]
mcmd-pulse-fwhm              = 2.9435   ; pulse duration, FWHM [fs]
mcmd-pulse-photons           = 1e11     ; total photons in the pulse
mcmd-pulse-focal-diameter    = 100      ; focal spot diameter [nm]
mcmd-pulse-photon-energy     = 1000     ; photon energy [eV]
mcmd-autostop                = 0        ; stop once E_kin/E_tot passes the threshold
mcmd-autostop-threshold      = 0.99
mcmd-initial-charges         = 0        ; read starting charges from charges.txt
mcmd-detailed-output         = 0        ; per-step analysis output; see README
mcmd-charge-output-stride    = 50       ; steps between charges_over_time.bin frames
mcmd-collisional-ionization  = 0        ; NOT IMPLEMENTED
